phonopy:
  version: "2.26.6"
  calculator: qe
  frequency_unit_conversion_factor: 3634.873744
  symmetry_tolerance: 1.00000e-05

supercell_matrix:
- [   2,   0,   0 ]
- [   0,   2,   0 ]
- [   0,   0,   2 ]

primitive_cell:
  lattice:
  - [    -5.131097760439977,     0.000000000000000,     5.131097760439977 ] # a
  - [     0.000000000000000,     5.131097760439977,     5.131097760439977 ] # b
  - [    -5.131097760439977,     5.131097760439977,     0.000000000000000 ] # c
  points:
  - symbol: Si # 1
    coordinates: [  0.000000000000000,  0.000000000000000,  0.000000000000000 ]
    mass: 28.085500
  - symbol: Si # 2
    coordinates: [  0.750000000000000,  0.750000000000000,  0.750000000000000 ]
    mass: 28.085500
  reciprocal_lattice: # without 2pi
  - [    -0.097445034833467,    -0.097445034833467,     0.097445034833467 ] # a*
  - [     0.097445034833467,     0.097445034833467,     0.097445034833467 ] # b*
  - [    -0.097445034833467,     0.097445034833467,    -0.097445034833467 ] # c*

unit_cell:
  lattice:
  - [    -5.131097760439977,     0.000000000000000,     5.131097760439977 ] # a
  - [     0.000000000000000,     5.131097760439977,     5.131097760439977 ] # b
  - [    -5.131097760439977,     5.131097760439977,     0.000000000000000 ] # c
  points:
  - symbol: Si # 1
    coordinates: [  0.000000000000000,  0.000000000000000,  0.000000000000000 ]
    mass: 28.085500
    reduced_to: 1
  - symbol: Si # 2
    coordinates: [  0.750000000000000,  0.750000000000000,  0.750000000000000 ]
    mass: 28.085500
    reduced_to: 2

supercell:
  lattice:
  - [   -10.262195520879954,     0.000000000000000,    10.262195520879954 ] # a
  - [     0.000000000000000,    10.262195520879954,    10.262195520879954 ] # b
  - [   -10.262195520879954,    10.262195520879954,     0.000000000000000 ] # c
  points:
  - symbol: Si # 1
    coordinates: [  0.000000000000000,  0.000000000000000,  0.000000000000000 ]
    mass: 28.085500
    reduced_to: 1
  - symbol: Si # 2
    coordinates: [  0.500000000000000,  0.000000000000000,  0.000000000000000 ]
    mass: 28.085500
    reduced_to: 1
  - symbol: Si # 3
    coordinates: [  0.000000000000000,  0.500000000000000,  0.000000000000000 ]
    mass: 28.085500
    reduced_to: 1
  - symbol: Si # 4
    coordinates: [  0.500000000000000,  0.500000000000000,  0.000000000000000 ]
    mass: 28.085500
    reduced_to: 1
  - symbol: Si # 5
    coordinates: [  0.000000000000000,  0.000000000000000,  0.500000000000000 ]
    mass: 28.085500
    reduced_to: 1
  - symbol: Si # 6
    coordinates: [  0.500000000000000,  0.000000000000000,  0.500000000000000 ]
    mass: 28.085500
    reduced_to: 1
  - symbol: Si # 7
    coordinates: [  0.000000000000000,  0.500000000000000,  0.500000000000000 ]
    mass: 28.085500
    reduced_to: 1
  - symbol: Si # 8
    coordinates: [  0.500000000000000,  0.500000000000000,  0.500000000000000 ]
    mass: 28.085500
    reduced_to: 1
  - symbol: Si # 9
    coordinates: [  0.375000000000000,  0.375000000000000,  0.375000000000000 ]
    mass: 28.085500
    reduced_to: 9
  - symbol: Si # 10
    coordinates: [  0.875000000000000,  0.375000000000000,  0.375000000000000 ]
    mass: 28.085500
    reduced_to: 9
  - symbol: Si # 11
    coordinates: [  0.375000000000000,  0.875000000000000,  0.375000000000000 ]
    mass: 28.085500
    reduced_to: 9
  - symbol: Si # 12
    coordinates: [  0.875000000000000,  0.875000000000000,  0.375000000000000 ]
    mass: 28.085500
    reduced_to: 9
  - symbol: Si # 13
    coordinates: [  0.375000000000000,  0.375000000000000,  0.875000000000000 ]
    mass: 28.085500
    reduced_to: 9
  - symbol: Si # 14
    coordinates: [  0.875000000000000,  0.375000000000000,  0.875000000000000 ]
    mass: 28.085500
    reduced_to: 9
  - symbol: Si # 15
    coordinates: [  0.375000000000000,  0.875000000000000,  0.875000000000000 ]
    mass: 28.085500
    reduced_to: 9
  - symbol: Si # 16
    coordinates: [  0.875000000000000,  0.875000000000000,  0.875000000000000 ]
    mass: 28.085500
    reduced_to: 9

displacements:
- atom:    1
  displacement:
    [  -0.0007071067811865,  0.0000000000000000,  0.0007071067811865 ]
  forces:
  - [  -0.0001842681799440, -0.0000001860440689,  0.0001842681799440 ]
  - [   0.0000046054582028, -0.0000000400115020, -0.0000046054582028 ]
  - [  -0.0000280175791802, -0.0000108057705578,  0.0000062308847015 ]
  - [  -0.0000062496625260,  0.0000108611137763,  0.0000279865490727 ]
  - [  -0.0000062308847015, -0.0000108057705578,  0.0000280175791802 ]
  - [  -0.0000279865490727,  0.0000108611137763,  0.0000062496625260 ]
  - [  -0.0000170620756248, -0.0000000261216209,  0.0000170620756248 ]
  - [   0.0000077164561485, -0.0000000333921330, -0.0000077164561485 ]
  - [   0.0000068373335916, -0.0000127594292387, -0.0000068373335916 ]
  - [   0.0000069008127184,  0.0000128567062397, -0.0000069008127184 ]
  - [  -0.0000059499509232, -0.0000000395340429,  0.0000059488079553 ]
  - [   0.0000333927962206, -0.0000000320481655, -0.0000333910000002 ]
  - [  -0.0000059488079553, -0.0000000395340429,  0.0000059499509232 ]
  - [   0.0000333910000002, -0.0000000320481655, -0.0000333927962206 ]
  - [   0.0000945135381754,  0.0000611525396250, -0.0000945135381754 ]
  - [   0.0000943562948703, -0.0000609317693215, -0.0000943562948703 ]
- atom:    1
  displacement:
    [   0.0007071067811865,  0.0000000000000000, -0.0007071067811865 ]
  forces:
  - [   0.0001842681799440,  0.0000001860440689, -0.0001842681799440 ]
  - [  -0.0000046054582028,  0.0000000400115020,  0.0000046054582028 ]
  - [   0.0000280175791802,  0.0000108057705578, -0.0000062308847015 ]
  - [   0.0000062496625260, -0.0000108611137763, -0.0000279865490727 ]
  - [   0.0000062308847015,  0.0000108057705578, -0.0000280175791802 ]
  - [   0.0000279865490727, -0.0000108611137763, -0.0000062496625260 ]
  - [   0.0000170620756248,  0.0000000261216209, -0.0000170620756248 ]
  - [  -0.0000077164561485,  0.0000000333921330,  0.0000077164561485 ]
  - [  -0.0000068373335916,  0.0000127594292387,  0.0000068373335916 ]
  - [  -0.0000069008127184, -0.0000128567062397,  0.0000069008127184 ]
  - [   0.0000059499509232,  0.0000000395340429, -0.0000059488079553 ]
  - [  -0.0000333927962206,  0.0000000320481655,  0.0000333910000002 ]
  - [   0.0000059488079553,  0.0000000395340429, -0.0000059499509232 ]
  - [  -0.0000333910000002,  0.0000000320481655,  0.0000333927962206 ]
  - [  -0.0000945135381754, -0.0000611525396250,  0.0000945135381754 ]
  - [  -0.0000943562948703,  0.0000609317693215,  0.0000943562948703 ]
- atom:    1
  displacement:
    [   0.0000000000000000,  0.0007071067811865,  0.0007071067811865 ]
  forces:
  - [  -0.0001842681799440, -0.0000001860440689,  0.0001842681799440 ]
  - [   0.0000046054582028, -0.0000000400115020, -0.0000046054582028 ]
  - [  -0.0000280175791802, -0.0000108057705578,  0.0000062308847015 ]
  - [  -0.0000062496625260,  0.0000108611137763,  0.0000279865490727 ]
  - [  -0.0000062308847015, -0.0000108057705578,  0.0000280175791802 ]
  - [  -0.0000279865490727,  0.0000108611137763,  0.0000062496625260 ]
  - [  -0.0000170620756248, -0.0000000261216209,  0.0000170620756248 ]
  - [   0.0000077164561485, -0.0000000333921330, -0.0000077164561485 ]
  - [   0.0000068373335916, -0.0000127594292387, -0.0000068373335916 ]
  - [   0.0000069008127184,  0.0000128567062397, -0.0000069008127184 ]
  - [  -0.0000059499509232, -0.0000000395340429,  0.0000059488079553 ]
  - [   0.0000333927962206, -0.0000000320481655, -0.0000333910000002 ]
  - [  -0.0000059488079553, -0.0000000395340429,  0.0000059499509232 ]
  - [   0.0000333910000002, -0.0000000320481655, -0.0000333927962206 ]
  - [   0.0000945135381754,  0.0000611525396250, -0.0000945135381754 ]
  - [   0.0000943562948703, -0.0000609317693215, -0.0000943562948703 ]
- atom:    1
  displacement:
    [   0.0000000000000000, -0.0007071067811865, -0.0007071067811865 ]
  forces:
  - [   0.0001842681799440,  0.0000001860440689, -0.0001842681799440 ]
  - [  -0.0000046054582028,  0.0000000400115020,  0.0000046054582028 ]
  - [   0.0000280175791802,  0.0000108057705578, -0.0000062308847015 ]
  - [   0.0000062496625260, -0.0000108611137763, -0.0000279865490727 ]
  - [   0.0000062308847015,  0.0000108057705578, -0.0000280175791802 ]
  - [   0.0000279865490727, -0.0000108611137763, -0.0000062496625260 ]
  - [   0.0000170620756248,  0.0000000261216209, -0.0000170620756248 ]
  - [  -0.0000077164561485,  0.0000000333921330,  0.0000077164561485 ]
  - [  -0.0000068373335916,  0.0000127594292387,  0.0000068373335916 ]
  - [  -0.0000069008127184, -0.0000128567062397,  0.0000069008127184 ]
  - [   0.0000059499509232,  0.0000000395340429, -0.0000059488079553 ]
  - [  -0.0000333927962206,  0.0000000320481655,  0.0000333910000002 ]
  - [   0.0000059488079553,  0.0000000395340429, -0.0000059499509232 ]
  - [  -0.0000333910000002,  0.0000000320481655,  0.0000333927962206 ]
  - [  -0.0000945135381754, -0.0000611525396250,  0.0000945135381754 ]
  - [  -0.0000943562948703,  0.0000609317693215,  0.0000943562948703 ]
- atom:    1
  displacement:
    [  -0.0007071067811865,  0.0007071067811865,  0.0000000000000000 ]
  forces:
  - [  -0.0001842681799440, -0.0000001860440689,  0.0001842681799440 ]
  - [   0.0000046054582028, -0.0000000400115020, -0.0000046054582028 ]
  - [  -0.0000280175791802, -0.0000108057705578,  0.0000062308847015 ]
  - [  -0.0000062496625260,  0.0000108611137763,  0.0000279865490727 ]
  - [  -0.0000062308847015, -0.0000108057705578,  0.0000280175791802 ]
  - [  -0.0000279865490727,  0.0000108611137763,  0.0000062496625260 ]
  - [  -0.0000170620756248, -0.0000000261216209,  0.0000170620756248 ]
  - [   0.0000077164561485, -0.0000000333921330, -0.0000077164561485 ]
  - [   0.0000068373335916, -0.0000127594292387, -0.0000068373335916 ]
  - [   0.0000069008127184,  0.0000128567062397, -0.0000069008127184 ]
  - [  -0.0000059499509232, -0.0000000395340429,  0.0000059488079553 ]
  - [   0.0000333927962206, -0.0000000320481655, -0.0000333910000002 ]
  - [  -0.0000059488079553, -0.0000000395340429,  0.0000059499509232 ]
  - [   0.0000333910000002, -0.0000000320481655, -0.0000333927962206 ]
  - [   0.0000945135381754,  0.0000611525396250, -0.0000945135381754 ]
  - [   0.0000943562948703, -0.0000609317693215, -0.0000943562948703 ]
- atom:    1
  displacement:
    [   0.0007071067811865, -0.0007071067811865,  0.0000000000000000 ]
  forces:
  - [   0.0001842681799440,  0.0000001860440689, -0.0001842681799440 ]
  - [  -0.0000046054582028,  0.0000000400115020,  0.0000046054582028 ]
  - [   0.0000280175791802,  0.0000108057705578, -0.0000062308847015 ]
  - [   0.0000062496625260, -0.0000108611137763, -0.0000279865490727 ]
  - [   0.0000062308847015,  0.0000108057705578, -0.0000280175791802 ]
  - [   0.0000279865490727, -0.0000108611137763, -0.0000062496625260 ]
  - [   0.0000170620756248,  0.0000000261216209, -0.0000170620756248 ]
  - [  -0.0000077164561485,  0.0000000333921330,  0.0000077164561485 ]
  - [  -0.0000068373335916,  0.0000127594292387,  0.0000068373335916 ]
  - [  -0.0000069008127184, -0.0000128567062397,  0.0000069008127184 ]
  - [   0.0000059499509232,  0.0000000395340429, -0.0000059488079553 ]
  - [  -0.0000333927962206,  0.0000000320481655,  0.0000333910000002 ]
  - [   0.0000059488079553,  0.0000000395340429, -0.0000059499509232 ]
  - [  -0.0000333910000002,  0.0000000320481655,  0.0000333927962206 ]
  - [  -0.0000945135381754, -0.0000611525396250,  0.0000945135381754 ]
  - [  -0.0000943562948703,  0.0000609317693215,  0.0000943562948703 ]
- atom:    9
  displacement:
    [  -0.0007071067811865,  0.0000000000000000,  0.0007071067811865 ]
  forces:
  - [  -0.0001842681799440, -0.0000001860440689,  0.0001842681799440 ]
  - [   0.0000046054582028, -0.0000000400115020, -0.0000046054582028 ]
  - [  -0.0000280175791802, -0.0000108057705578,  0.0000062308847015 ]
  - [  -0.0000062496625260,  0.0000108611137763,  0.0000279865490727 ]
  - [  -0.0000062308847015, -0.0000108057705578,  0.0000280175791802 ]
  - [  -0.0000279865490727,  0.0000108611137763,  0.0000062496625260 ]
  - [  -0.0000170620756248, -0.0000000261216209,  0.0000170620756248 ]
  - [   0.0000077164561485, -0.0000000333921330, -0.0000077164561485 ]
  - [   0.0000068373335916, -0.0000127594292387, -0.0000068373335916 ]
  - [   0.0000069008127184,  0.0000128567062397, -0.0000069008127184 ]
  - [  -0.0000059499509232, -0.0000000395340429,  0.0000059488079553 ]
  - [   0.0000333927962206, -0.0000000320481655, -0.0000333910000002 ]
  - [  -0.0000059488079553, -0.0000000395340429,  0.0000059499509232 ]
  - [   0.0000333910000002, -0.0000000320481655, -0.0000333927962206 ]
  - [   0.0000945135381754,  0.0000611525396250, -0.0000945135381754 ]
  - [   0.0000943562948703, -0.0000609317693215, -0.0000943562948703 ]
- atom:    9
  displacement:
    [   0.0007071067811865,  0.0000000000000000, -0.0007071067811865 ]
  forces:
  - [   0.0001842681799440,  0.0000001860440689, -0.0001842681799440 ]
  - [  -0.0000046054582028,  0.0000000400115020,  0.0000046054582028 ]
  - [   0.0000280175791802,  0.0000108057705578, -0.0000062308847015 ]
  - [   0.0000062496625260, -0.0000108611137763, -0.0000279865490727 ]
  - [   0.0000062308847015,  0.0000108057705578, -0.0000280175791802 ]
  - [   0.0000279865490727, -0.0000108611137763, -0.0000062496625260 ]
  - [   0.0000170620756248,  0.0000000261216209, -0.0000170620756248 ]
  - [  -0.0000077164561485,  0.0000000333921330,  0.0000077164561485 ]
  - [  -0.0000068373335916,  0.0000127594292387,  0.0000068373335916 ]
  - [  -0.0000069008127184, -0.0000128567062397,  0.0000069008127184 ]
  - [   0.0000059499509232,  0.0000000395340429, -0.0000059488079553 ]
  - [  -0.0000333927962206,  0.0000000320481655,  0.0000333910000002 ]
  - [   0.0000059488079553,  0.0000000395340429, -0.0000059499509232 ]
  - [  -0.0000333910000002,  0.0000000320481655,  0.0000333927962206 ]
  - [  -0.0000945135381754, -0.0000611525396250,  0.0000945135381754 ]
  - [  -0.0000943562948703,  0.0000609317693215,  0.0000943562948703 ]
- atom:    9
  displacement:
    [   0.0000000000000000,  0.0007071067811865,  0.0007071067811865 ]
  forces:
  - [  -0.0001842681799440, -0.0000001860440689,  0.0001842681799440 ]
  - [   0.0000046054582028, -0.0000000400115020, -0.0000046054582028 ]
  - [  -0.0000280175791802, -0.0000108057705578,  0.0000062308847015 ]
  - [  -0.0000062496625260,  0.0000108611137763,  0.0000279865490727 ]
  - [  -0.0000062308847015, -0.0000108057705578,  0.0000280175791802 ]
  - [  -0.0000279865490727,  0.0000108611137763,  0.0000062496625260 ]
  - [  -0.0000170620756248, -0.0000000261216209,  0.0000170620756248 ]
  - [   0.0000077164561485, -0.0000000333921330, -0.0000077164561485 ]
  - [   0.0000068373335916, -0.0000127594292387, -0.0000068373335916 ]
  - [   0.0000069008127184,  0.0000128567062397, -0.0000069008127184 ]
  - [  -0.0000059499509232, -0.0000000395340429,  0.0000059488079553 ]
  - [   0.0000333927962206, -0.0000000320481655, -0.0000333910000002 ]
  - [  -0.0000059488079553, -0.0000000395340429,  0.0000059499509232 ]
  - [   0.0000333910000002, -0.0000000320481655, -0.0000333927962206 ]
  - [   0.0000945135381754,  0.0000611525396250, -0.0000945135381754 ]
  - [   0.0000943562948703, -0.0000609317693215, -0.0000943562948703 ]
- atom:    9
  displacement:
    [   0.0000000000000000, -0.0007071067811865, -0.0007071067811865 ]
  forces:
  - [   0.0001842681799440,  0.0000001860440689, -0.0001842681799440 ]
  - [  -0.0000046054582028,  0.0000000400115020,  0.0000046054582028 ]
  - [   0.0000280175791802,  0.0000108057705578, -0.0000062308847015 ]
  - [   0.0000062496625260, -0.0000108611137763, -0.0000279865490727 ]
  - [   0.0000062308847015,  0.0000108057705578, -0.0000280175791802 ]
  - [   0.0000279865490727, -0.0000108611137763, -0.0000062496625260 ]
  - [   0.0000170620756248,  0.0000000261216209, -0.0000170620756248 ]
  - [  -0.0000077164561485,  0.0000000333921330,  0.0000077164561485 ]
  - [  -0.0000068373335916,  0.0000127594292387,  0.0000068373335916 ]
  - [  -0.0000069008127184, -0.0000128567062397,  0.0000069008127184 ]
  - [   0.0000059499509232,  0.0000000395340429, -0.0000059488079553 ]
  - [  -0.0000333927962206,  0.0000000320481655,  0.0000333910000002 ]
  - [   0.0000059488079553,  0.0000000395340429, -0.0000059499509232 ]
  - [  -0.0000333910000002,  0.0000000320481655,  0.0000333927962206 ]
  - [  -0.0000945135381754, -0.0000611525396250,  0.0000945135381754 ]
  - [  -0.0000943562948703,  0.0000609317693215,  0.0000943562948703 ]
- atom:    9
  displacement:
    [  -0.0007071067811865,  0.0007071067811865,  0.0000000000000000 ]
  forces:
  - [  -0.0001842681799440, -0.0000001860440689,  0.0001842681799440 ]
  - [   0.0000046054582028, -0.0000000400115020, -0.0000046054582028 ]
  - [  -0.0000280175791802, -0.0000108057705578,  0.0000062308847015 ]
  - [  -0.0000062496625260,  0.0000108611137763,  0.0000279865490727 ]
  - [  -0.0000062308847015, -0.0000108057705578,  0.0000280175791802 ]
  - [  -0.0000279865490727,  0.0000108611137763,  0.0000062496625260 ]
  - [  -0.0000170620756248, -0.0000000261216209,  0.0000170620756248 ]
  - [   0.0000077164561485, -0.0000000333921330, -0.0000077164561485 ]
  - [   0.0000068373335916, -0.0000127594292387, -0.0000068373335916 ]
  - [   0.0000069008127184,  0.0000128567062397, -0.0000069008127184 ]
  - [  -0.0000059499509232, -0.0000000395340429,  0.0000059488079553 ]
  - [   0.0000333927962206, -0.0000000320481655, -0.0000333910000002 ]
  - [  -0.0000059488079553, -0.0000000395340429,  0.0000059499509232 ]
  - [   0.0000333910000002, -0.0000000320481655, -0.0000333927962206 ]
  - [   0.0000945135381754,  0.0000611525396250, -0.0000945135381754 ]
  - [   0.0000943562948703, -0.0000609317693215, -0.0000943562948703 ]
- atom:    9
  displacement:
    [   0.0007071067811865, -0.0007071067811865,  0.0000000000000000 ]
  forces:
  - [   0.0001842681799440,  0.0000001860440689, -0.0001842681799440 ]
  - [  -0.0000046054582028,  0.0000000400115020,  0.0000046054582028 ]
  - [   0.0000280175791802,  0.0000108057705578, -0.0000062308847015 ]
  - [   0.0000062496625260, -0.0000108611137763, -0.0000279865490727 ]
  - [   0.0000062308847015,  0.0000108057705578, -0.0000280175791802 ]
  - [   0.0000279865490727, -0.0000108611137763, -0.0000062496625260 ]
  - [   0.0000170620756248,  0.0000000261216209, -0.0000170620756248 ]
  - [  -0.0000077164561485,  0.0000000333921330,  0.0000077164561485 ]
  - [  -0.0000068373335916,  0.0000127594292387,  0.0000068373335916 ]
  - [  -0.0000069008127184, -0.0000128567062397,  0.0000069008127184 ]
  - [   0.0000059499509232,  0.0000000395340429, -0.0000059488079553 ]
  - [  -0.0000333927962206,  0.0000000320481655,  0.0000333910000002 ]
  - [   0.0000059488079553,  0.0000000395340429, -0.0000059499509232 ]
  - [  -0.0000333910000002,  0.0000000320481655,  0.0000333927962206 ]
  - [  -0.0000945135381754, -0.0000611525396250,  0.0000945135381754 ]
  - [  -0.0000943562948703,  0.0000609317693215,  0.0000943562948703 ]
